+ 6.7 /NodeList/3/DeviceList/1/$ns3::PointToPointNetDevice/TxQueue/Enqueue ns3::PppHeader (Point-to-Point Protocol: IP (0x0021)) ns3::Ipv4Header (tos 0x0 ttl 64 id 0 protocol 17 offset 0 flags [none] length: 238 10.3.3.2 > 10.1.1.1) ns3::UdpHeader (length: 218 49153 > 9) Payload (size=210)
- 6.7 /NodeList/3/DeviceList/1/$ns3::PointToPointNetDevice/TxQueue/Dequeue ns3::PppHeader (Point-to-Point Protocol: IP (0x0021)) ns3::Ipv4Header (tos 0x0 ttl 64 id 0 protocol 17 offset 0 flags [none] length: 238 10.3.3.2 > 10.1.1.1) ns3::UdpHeader (length: 218 49153 > 9) Payload (size=210)
r 6.80128 /NodeList/1/DeviceList/1/$ns3::PointToPointNetDevice/MacRx ns3::Ipv4Header (tos 0x0 ttl 64 id 0 protocol 17 offset 0 flags [none] length: 238 10.3.3.2 > 10.1.1.1) ns3::UdpHeader (length: 218 49153 > 9) Payload (size=210)
